DF-ISE text

Info {
  version = 1.1
  type    = grid
  dimension   = 3
  nb_vertices = 4540
  nb_edges    = 26571
  nb_faces    = 41776
  nb_elements = 24947
  nb_regions  = 105
  regions     = [ "Ni.3" "V.4" "Ni.12" "V.13" "Ni.21" "V.22" "bulk_GaAs" "Ni.4" "V.5" "Ni.13" "V.14" "Ni.22" "V.23" "Ni.5" "V.6" "Ni.14" "V.15" "Ni.23" "V.24" "Ni.6" "V.7" "Ni.15" "V.16" "Ni.24" "V.0" "Ni.7" "V.8" "Ni.16" "V.17" "Nickel_electrode" "Ni.0" "V.1" "Ni.8" "V.9" "V.10" "Ni.17" "V.18" "Ni.1" "V.2" "Ni.9" "Ni.10" "V.11" "Ni.18" "V.19" "V.20" "Ni.2" "V.3" "Ni.11" "V.12" "Ni.19" "Ni.20" "V.21" "Cathode" "Anode" "Ni.3+V.3" "V.4+bulk_GaAs" "V.4+Ni.4" "Ni.12+V.12" "V.13+bulk_GaAs" "V.13+Ni.13" "Ni.21+V.21" "V.22+bulk_GaAs" "V.22+Ni.22" "bulk_GaAs+V.12" "bulk_GaAs+V.8" "bulk_GaAs+V.7" "bulk_GaAs+V.14" "bulk_GaAs+V.3" "bulk_GaAs+V.9" "bulk_GaAs+V.17" "bulk_GaAs+V.18" "bulk_GaAs+V.21" "bulk_GaAs+V.20" "bulk_GaAs+Nickel_electrode" "bulk_GaAs+V.0" "bulk_GaAs+V.10" "bulk_GaAs+V.15" "bulk_GaAs+V.16" "bulk_GaAs+V.11" "bulk_GaAs+V.2" "bulk_GaAs+V.1" "bulk_GaAs+V.6" "bulk_GaAs+V.5" "bulk_GaAs+V.23" "bulk_GaAs+V.24" "bulk_GaAs+V.19" "V.5+Ni.5" "V.14+Ni.14" "V.23+Ni.23" "V.6+Ni.6" "V.15+Ni.15" "V.24+Ni.24" "V.7+Ni.7" "V.16+Ni.16" "V.0+Ni.0" "V.8+Ni.8" "V.17+Ni.17" "V.1+Ni.1" "V.9+Ni.9" "V.10+Ni.10" "V.18+Ni.18" "V.2+Ni.2" "V.11+Ni.11" "V.19+Ni.19" "V.20+Ni.20" ]
  materials   = [ Nickel Tungsten Nickel Tungsten Nickel Tungsten GaAs Nickel Tungsten Nickel Tungsten Nickel Tungsten Nickel Tungsten Nickel Tungsten Nickel Tungsten Nickel Tungsten Nickel Tungsten Nickel Tungsten Nickel Tungsten Nickel Tungsten Nickel Nickel Tungsten Nickel Tungsten Tungsten Nickel Tungsten Nickel Tungsten Nickel Nickel Tungsten Nickel Tungsten Tungsten Nickel Tungsten Nickel Tungsten Nickel Nickel Tungsten Contact Contact Interface Interface Interface Interface Interface Interface Interface Interface Interface Interface Interface Interface Interface Interface Interface Interface Interface Interface Interface Interface Interface Interface Interface Interface Interface Interface Interface Interface Interface Interface Interface Interface Interface Interface Interface Interface Interface Interface Interface Interface Interface Interface Interface Interface Interface Interface Interface Interface Interface Interface Interface ]
}

Data {

  CoordSystem {
    translate = [  0.000000000000000e+00 0.000000000000000e+00 0.000000000000000e+00 ]
    transform = [  1.000000000000000e+00 0.000000000000000e+00 0.000000000000000e+00
 0.000000000000000e+00 1.000000000000000e+00 0.000000000000000e+00
 0.000000000000000e+00 0.000000000000000e+00 1.000000000000000e+00
 ]
  }

  Vertices (4540) {
 1.300000000000000e+03 1.300000000000000e+03 -1.000000000000000e+00
 1.300000000000000e+03 -0.000000000000000e+00 -1.000000000000000e+00
 -0.000000000000000e+00 -0.000000000000000e+00 -1.000000000000000e+00
 -0.000000000000000e+00 1.300000000000000e+03 -1.000000000000000e+00
 -0.000000000000000e+00 -0.000000000000000e+00 -0.000000000000000e+00
 1.300000000000000e+03 -0.000000000000000e+00 -0.000000000000000e+00
 -0.000000000000000e+00 1.300000000000000e+03 -0.000000000000000e+00
 1.300000000000000e+03 1.300000000000000e+03 -0.000000000000000e+00
 1.175000000000000e+03 1.125000000000000e+03 5.020500000000000e+02
 1.175000000000000e+03 1.175000000000000e+03 5.020500000000000e+02
 1.125000000000000e+03 1.175000000000000e+03 5.020500000000000e+02
 1.125000000000000e+03 1.125000000000000e+03 5.020500000000000e+02
 1.125000000000000e+03 1.125000000000000e+03 5.000500000000000e+02
 1.175000000000000e+03 1.125000000000000e+03 5.000500000000000e+02
 1.125000000000000e+03 1.175000000000000e+03 5.000500000000000e+02
 1.175000000000000e+03 1.175000000000000e+03 5.000500000000000e+02
 1.250000000000000e+03 1.050000000000000e+03 5.000500000000000e+02
 1.250000000000000e+03 1.250000000000000e+03 5.000500000000000e+02
 1.050000000000000e+03 1.250000000000000e+03 5.000500000000000e+02
 1.050000000000000e+03 1.050000000000000e+03 5.000500000000000e+02
 1.050000000000000e+03 1.050000000000000e+03 5.000000000000000e+02
 1.250000000000000e+03 1.050000000000000e+03 5.000000000000000e+02
 1.050000000000000e+03 1.250000000000000e+03 5.000000000000000e+02
 1.250000000000000e+03 1.250000000000000e+03 5.000000000000000e+02
 9.250000000000000e+02 1.125000000000000e+03 5.020500000000000e+02
 9.250000000000000e+02 1.175000000000000e+03 5.020500000000000e+02
 8.750000000000000e+02 1.175000000000000e+03 5.020500000000000e+02
 8.750000000000000e+02 1.125000000000000e+03 5.020500000000000e+02
 8.750000000000000e+02 1.125000000000000e+03 5.000500000000000e+02
 9.250000000000000e+02 1.125000000000000e+03 5.000500000000000e+02
 8.750000000000000e+02 1.175000000000000e+03 5.000500000000000e+02
 9.250000000000000e+02 1.175000000000000e+03 5.000500000000000e+02
 1.000000000000000e+03 1.050000000000000e+03 5.000500000000000e+02
 1.000000000000000e+03 1.250000000000000e+03 5.000500000000000e+02
 8.000000000000000e+02 1.250000000000000e+03 5.000500000000000e+02
 8.000000000000000e+02 1.050000000000000e+03 5.000500000000000e+02
 8.000000000000000e+02 1.050000000000000e+03 5.000000000000000e+02
 1.000000000000000e+03 1.050000000000000e+03 5.000000000000000e+02
 8.000000000000000e+02 1.250000000000000e+03 5.000000000000000e+02
 1.000000000000000e+03 1.250000000000000e+03 5.000000000000000e+02
 6.750000000000000e+02 1.125000000000000e+03 5.020500000000000e+02
 6.750000000000000e+02 1.175000000000000e+03 5.020500000000000e+02
 6.250000000000000e+02 1.175000000000000e+03 5.020500000000000e+02
 6.250000000000000e+02 1.125000000000000e+03 5.020500000000000e+02
 6.250000000000000e+02 1.125000000000000e+03 5.000500000000000e+02
 6.750000000000000e+02 1.125000000000000e+03 5.000500000000000e+02
 6.250000000000000e+02 1.175000000000000e+03 5.000500000000000e+02
 6.750000000000000e+02 1.175000000000000e+03 5.000500000000000e+02
 7.500000000000000e+02 1.050000000000000e+03 5.000500000000000e+02
 7.500000000000000e+02 1.250000000000000e+03 5.000500000000000e+02
 5.500000000000000e+02 1.250000000000000e+03 5.000500000000000e+02
 5.500000000000000e+02 1.050000000000000e+03 5.000500000000000e+02
 5.500000000000000e+02 1.050000000000000e+03 5.000000000000000e+02
 7.500000000000000e+02 1.050000000000000e+03 5.000000000000000e+02
 5.500000000000000e+02 1.250000000000000e+03 5.000000000000000e+02
 7.500000000000000e+02 1.250000000000000e+03 5.000000000000000e+02
 4.250000000000000e+02 1.125000000000000e+03 5.020500000000000e+02
 4.250000000000000e+02 1.175000000000000e+03 5.020500000000000e+02
 3.750000000000000e+02 1.175000000000000e+03 5.020500000000000e+02
 3.750000000000000e+02 1.125000000000000e+03 5.020500000000000e+02
 3.750000000000000e+02 1.125000000000000e+03 5.000500000000000e+02
 4.250000000000000e+02 1.125000000000000e+03 5.000500000000000e+02
 3.750000000000000e+02 1.175000000000000e+03 5.000500000000000e+02
 4.250000000000000e+02 1.175000000000000e+03 5.000500000000000e+02
 5.000000000000000e+02 1.050000000000000e+03 5.000500000000000e+02
 5.000000000000000e+02 1.250000000000000e+03 5.000500000000000e+02
 3.000000000000000e+02 1.250000000000000e+03 5.000500000000000e+02
 3.000000000000000e+02 1.050000000000000e+03 5.000500000000000e+02
 3.000000000000000e+02 1.050000000000000e+03 5.000000000000000e+02
 5.000000000000000e+02 1.050000000000000e+03 5.000000000000000e+02
 3.000000000000000e+02 1.250000000000000e+03 5.000000000000000e+02
 5.000000000000000e+02 1.250000000000000e+03 5.000000000000000e+02
 1.750000000000000e+02 1.125000000000000e+03 5.020500000000000e+02
 1.750000000000000e+02 1.175000000000000e+03 5.020500000000000e+02
 1.250000000000000e+02 1.175000000000000e+03 5.020500000000000e+02
 1.250000000000000e+02 1.125000000000000e+03 5.020500000000000e+02
 1.250000000000000e+02 1.125000000000000e+03 5.000500000000000e+02
 1.750000000000000e+02 1.125000000000000e+03 5.000500000000000e+02
 1.250000000000000e+02 1.175000000000000e+03 5.000500000000000e+02
 1.750000000000000e+02 1.175000000000000e+03 5.000500000000000e+02
 2.500000000000000e+02 1.050000000000000e+03 5.000500000000000e+02
 2.500000000000000e+02 1.250000000000000e+03 5.000500000000000e+02
 5.000000000000000e+01 1.250000000000000e+03 5.000500000000000e+02
 5.000000000000000e+01 1.050000000000000e+03 5.000500000000000e+02
 5.000000000000000e+01 1.050000000000000e+03 5.000000000000000e+02
 2.500000000000000e+02 1.050000000000000e+03 5.000000000000000e+02
 5.000000000000000e+01 1.250000000000000e+03 5.000000000000000e+02
 2.500000000000000e+02 1.250000000000000e+03 5.000000000000000e+02
 1.175000000000000e+03 8.750000000000000e+02 5.020500000000000e+02
 1.175000000000000e+03 9.250000000000000e+02 5.020500000000000e+02
 1.125000000000000e+03 9.250000000000000e+02 5.020500000000000e+02
 1.125000000000000e+03 8.750000000000000e+02 5.020500000000000e+02
 1.125000000000000e+03 8.750000000000000e+02 5.000500000000000e+02
 1.175000000000000e+03 8.750000000000000e+02 5.000500000000000e+02
 1.125000000000000e+03 9.250000000000000e+02 5.000500000000000e+02
 1.175000000000000e+03 9.250000000000000e+02 5.000500000000000e+02
 1.250000000000000e+03 8.000000000000000e+02 5.000500000000000e+02
 1.250000000000000e+03 1.000000000000000e+03 5.000500000000000e+02
 1.050000000000000e+03 1.000000000000000e+03 5.000500000000000e+02
 1.050000000000000e+03 8.000000000000000e+02 5.000500000000000e+02
 1.050000000000000e+03 8.000000000000000e+02 5.000000000000000e+02
 1.250000000000000e+03 8.000000000000000e+02 5.000000000000000e+02
 1.050000000000000e+03 1.000000000000000e+03 5.000000000000000e+02
 1.250000000000000e+03 1.000000000000000e+03 5.000000000000000e+02
 9.250000000000000e+02 8.750000000000000e+02 5.020500000000000e+02
 9.250000000000000e+02 9.250000000000000e+02 5.020500000000000e+02
 8.750000000000000e+02 9.250000000000000e+02 5.020500000000000e+02
 8.750000000000000e+02 8.750000000000000e+02 5.020500000000000e+02
 8.750000000000000e+02 8.750000000000000e+02 5.000500000000000e+02
 9.250000000000000e+02 8.750000000000000e+02 5.000500000000000e+02
 8.750000000000000e+02 9.250000000000000e+02 5.000500000000000e+02
 9.250000000000000e+02 9.250000000000000e+02 5.000500000000000e+02
 1.000000000000000e+03 8.000000000000000e+02 5.000500000000000e+02
 1.000000000000000e+03 1.000000000000000e+03 5.000500000000000e+02
 8.000000000000000e+02 1.000000000000000e+03 5.000500000000000e+02
 8.000000000000000e+02 8.000000000000000e+02 5.000500000000000e+02
 8.000000000000000e+02 8.000000000000000e+02 5.000000000000000e+02
 1.000000000000000e+03 8.000000000000000e+02 5.000000000000000e+02
 8.000000000000000e+02 1.000000000000000e+03 5.000000000000000e+02
 1.000000000000000e+03 1.000000000000000e+03 5.000000000000000e+02
 6.750000000000000e+02 8.750000000000000e+02 5.020500000000000e+02
 6.750000000000000e+02 9.250000000000000e+02 5.020500000000000e+02
 6.250000000000000e+02 9.250000000000000e+02 5.020500000000000e+02
 6.250000000000000e+02 8.750000000000000e+02 5.020500000000000e+02
 6.250000000000000e+02 8.750000000000000e+02 5.000500000000000e+02
 6.750000000000000e+02 8.750000000000000e+02 5.000500000000000e+02
 6.250000000000000e+02 9.250000000000000e+02 5.000500000000000e+02
 6.750000000000000e+02 9.250000000000000e+02 5.000500000000000e+02
 7.500000000000000e+02 8.000000000000000e+02 5.000500000000000e+02
 7.500000000000000e+02 1.000000000000000e+03 5.000500000000000e+02
 5.500000000000000e+02 1.000000000000000e+03 5.000500000000000e+02
 5.500000000000000e+02 8.000000000000000e+02 5.000500000000000e+02
 5.500000000000000e+02 8.000000000000000e+02 5.000000000000000e+02
 7.500000000000000e+02 8.000000000000000e+02 5.000000000000000e+02
 5.500000000000000e+02 1.000000000000000e+03 5.000000000000000e+02
 7.500000000000000e+02 1.000000000000000e+03 5.000000000000000e+02
 4.250000000000000e+02 8.750000000000000e+02 5.020500000000000e+02
 4.250000000000000e+02 9.250000000000000e+02 5.020500000000000e+02
 3.750000000000000e+02 9.250000000000000e+02 5.020500000000000e+02
 3.750000000000000e+02 8.750000000000000e+02 5.020500000000000e+02
 3.750000000000000e+02 8.750000000000000e+02 5.000500000000000e+02
 4.250000000000000e+02 8.750000000000000e+02 5.000500000000000e+02
 3.750000000000000e+02 9.250000000000000e+02 5.000500000000000e+02
 4.250000000000000e+02 9.250000000000000e+02 5.000500000000000e+02
 5.000000000000000e+02 8.000000000000000e+02 5.000500000000000e+02
 5.000000000000000e+02 1.000000000000000e+03 5.000500000000000e+02
 3.000000000000000e+02 1.000000000000000e+03 5.000500000000000e+02
 3.000000000000000e+02 8.000000000000000e+02 5.000500000000000e+02
 3.000000000000000e+02 8.000000000000000e+02 5.000000000000000e+02
 5.000000000000000e+02 8.000000000000000e+02 5.000000000000000e+02
 3.000000000000000e+02 1.000000000000000e+03 5.000000000000000e+02
 5.000000000000000e+02 1.000000000000000e+03 5.000000000000000e+02
 1.750000000000000e+02 8.750000000000000e+02 5.020500000000000e+02
 1.750000000000000e+02 9.250000000000000e+02 5.020500000000000e+02
 1.250000000000000e+02 9.250000000000000e+02 5.020500000000000e+02
 1.250000000000000e+02 8.750000000000000e+02 5.020500000000000e+02
 1.250000000000000e+02 8.750000000000000e+02 5.000500000000000e+02
 1.750000000000000e+02 8.750000000000000e+02 5.000500000000000e+02
 1.250000000000000e+02 9.250000000000000e+02 5.000500000000000e+02
 1.750000000000000e+02 9.250000000000000e+02 5.000500000000000e+02
 2.500000000000000e+02 8.000000000000000e+02 5.000500000000000e+02
 2.500000000000000e+02 1.000000000000000e+03 5.000500000000000e+02
 5.000000000000000e+01 1.000000000000000e+03 5.000500000000000e+02
 5.000000000000000e+01 8.000000000000000e+02 5.000500000000000e+02
 5.000000000000000e+01 8.000000000000000e+02 5.000000000000000e+02
 2.500000000000000e+02 8.000000000000000e+02 5.000000000000000e+02
 5.000000000000000e+01 1.000000000000000e+03 5.000000000000000e+02
 2.500000000000000e+02 1.000000000000000e+03 5.000000000000000e+02
 1.175000000000000e+03 6.250000000000000e+02 5.020500000000000e+02
 1.175000000000000e+03 6.750000000000000e+02 5.020500000000000e+02
 1.125000000000000e+03 6.750000000000000e+02 5.020500000000000e+02
 1.125000000000000e+03 6.250000000000000e+02 5.020500000000000e+02
 1.125000000000000e+03 6.250000000000000e+02 5.000500000000000e+02
 1.175000000000000e+03 6.250000000000000e+02 5.000500000000000e+02
 1.125000000000000e+03 6.750000000000000e+02 5.000500000000000e+02
 1.175000000000000e+03 6.750000000000000e+02 5.000500000000000e+02
 1.250000000000000e+03 5.500000000000000e+02 5.000500000000000e+02
 1.250000000000000e+03 7.500000000000000e+02 5.000500000000000e+02
 1.050000000000000e+03 7.500000000000000e+02 5.000500000000000e+02
 1.050000000000000e+03 5.500000000000000e+02 5.000500000000000e+02
 1.050000000000000e+03 5.500000000000000e+02 5.000000000000000e+02
 1.250000000000000e+03 5.500000000000000e+02 5.000000000000000e+02
 1.050000000000000e+03 7.500000000000000e+02 5.000000000000000e+02
 1.250000000000000e+03 7.500000000000000e+02 5.000000000000000e+02
 9.250000000000000e+02 6.250000000000000e+02 5.020500000000000e+02
 9.250000000000000e+02 6.750000000000000e+02 5.020500000000000e+02
 8.750000000000000e+02 6.750000000000000e+02 5.020500000000000e+02
 8.750000000000000e+02 6.250000000000000e+02 5.020500000000000e+02
 8.750000000000000e+02 6.250000000000000e+02 5.000500000000000e+02
 9.250000000000000e+02 6.250000000000000e+02 5.000500000000000e+02
 8.750000000000000e+02 6.750000000000000e+02 5.000500000000000e+02
 9.250000000000000e+02 6.750000000000000e+02 5.000500000000000e+02
 1.000000000000000e+03 5.500000000000000e+02 5.000500000000000e+02
 1.000000000000000e+03 7.500000000000000e+02 5.000500000000000e+02
 8.000000000000000e+02 7.500000000000000e+02 5.000500000000000e+02
 8.000000000000000e+02 5.500000000000000e+02 5.000500000000000e+02
 8.000000000000000e+02 5.500000000000000e+02 5.000000000000000e+02
 1.000000000000000e+03 5.500000000000000e+02 5.000000000000000e+02
 8.000000000000000e+02 7.500000000000000e+02 5.000000000000000e+02
 1.000000000000000e+03 7.500000000000000e+02 5.000000000000000e+02
 6.750000000000000e+02 6.250000000000000e+02 5.020500000000000e+02
 6.750000000000000e+02 6.750000000000000e+02 5.020500000000000e+02
 6.250000000000000e+02 6.750000000000000e+02 5.020500000000000e+02
 6.250000000000000e+02 6.250000000000000e+02 5.020500000000000e+02
 6.250000000000000e+02 6.250000000000000e+02 5.000500000000000e+02
 6.750000000000000e+02 6.250000000000000e+02 5.000500000000000e+02
 6.250000000000000e+02 6.750000000000000e+02 5.000500000000000e+02
 6.750000000000000e+02 6.750000000000000e+02 5.000500000000000e+02
 7.500000000000000e+02 5.500000000000000e+02 5.000500000000000e+02
 7.500000000000000e+02 7.500000000000000e+02 5.000500000000000e+02
 5.500000000000000e+02 7.500000000000000e+02 5.000500000000000e+02
 5.500000000000000e+02 5.500000000000000e+02 5.000500000000000e+02
 5.500000000000000e+02 5.500000000000000e+02 5.000000000000000e+02
 7.500000000000000e+02 5.500000000000000e+02 5.000000000000000e+02
 5.500000000000000e+02 7.500000000000000e+02 5.000000000000000e+02
 7.500000000000000e+02 7.500000000000000e+02 5.000000000000000e+02
 4.250000000000000e+02 6.250000000000000e+02 5.020500000000000e+02
 4.250000000000000e+02 6.750000000000000e+02 5.020500000000000e+02
 3.750000000000000e+02 6.750000000000000e+02 5.020500000000000e+02
 3.750000000000000e+02 6.250000000000000e+02 5.020500000000000e+02
 3.750000000000000e+02 6.250000000000000e+02 5.000500000000000e+02
 4.250000000000000e+02 6.250000000000000e+02 5.000500000000000e+02
 3.750000000000000e+02 6.750000000000000e+02 5.000500000000000e+02
 4.250000000000000e+02 6.750000000000000e+02 5.000500000000000e+02
 5.000000000000000e+02 5.500000000000000e+02 5.000500000000000e+02
 5.000000000000000e+02 7.500000000000000e+02 5.000500000000000e+02
 3.000000000000000e+02 7.500000000000000e+02 5.000500000000000e+02
 3.000000000000000e+02 5.500000000000000e+02 5.000500000000000e+02
 3.000000000000000e+02 5.500000000000000e+02 5.000000000000000e+02
 5.000000000000000e+02 5.500000000000000e+02 5.000000000000000e+02
 3.000000000000000e+02 7.500000000000000e+02 5.000000000000000e+02
 5.000000000000000e+02 7.500000000000000e+02 5.000000000000000e+02
 1.750000000000000e+02 6.250000000000000e+02 5.020500000000000e+02
 1.750000000000000e+02 6.750000000000000e+02 5.020500000000000e+02
 1.250000000000000e+02 6.750000000000000e+02 5.020500000000000e+02
 1.250000000000000e+02 6.250000000000000e+02 5.020500000000000e+02
 1.250000000000000e+02 6.250000000000000e+02 5.000500000000000e+02
 1.750000000000000e+02 6.250000000000000e+02 5.000500000000000e+02
 1.250000000000000e+02 6.750000000000000e+02 5.000500000000000e+02
 1.750000000000000e+02 6.750000000000000e+02 5.000500000000000e+02
 2.500000000000000e+02 5.500000000000000e+02 5.000500000000000e+02
 2.500000000000000e+02 7.500000000000000e+02 5.000500000000000e+02
 5.000000000000000e+01 7.500000000000000e+02 5.000500000000000e+02
 5.000000000000000e+01 5.500000000000000e+02 5.000500000000000e+02
 5.000000000000000e+01 5.500000000000000e+02 5.000000000000000e+02
 2.500000000000000e+02 5.500000000000000e+02 5.000000000000000e+02
 5.000000000000000e+01 7.500000000000000e+02 5.000000000000000e+02
 2.500000000000000e+02 7.500000000000000e+02 5.000000000000000e+02
 1.175000000000000e+03 3.750000000000000e+02 5.020500000000000e+02
 1.175000000000000e+03 4.250000000000000e+02 5.020500000000000e+02
 1.125000000000000e+03 4.250000000000000e+02 5.020500000000000e+02
 1.125000000000000e+03 3.750000000000000e+02 5.020500000000000e+02
 1.125000000000000e+03 3.750000000000000e+02 5.000500000000000e+02
 1.175000000000000e+03 3.750000000000000e+02 5.000500000000000e+02
 1.125000000000000e+03 4.250000000000000e+02 5.000500000000000e+02
 1.175000000000000e+03 4.250000000000000e+02 5.000500000000000e+02
 1.250000000000000e+03 3.000000000000000e+02 5.000500000000000e+02
 1.250000000000000e+03 5.000000000000000e+02 5.000500000000000e+02
 1.050000000000000e+03 5.000000000000000e+02 5.000500000000000e+02
 1.050000000000000e+03 3.000000000000000e+02 5.000500000000000e+02
 1.050000000000000e+03 3.000000000000000e+02 5.000000000000000e+02
 1.250000000000000e+03 3.000000000000000e+02 5.000000000000000e+02
 1.050000000000000e+03 5.000000000000000e+02 5.000000000000000e+02
 1.250000000000000e+03 5.000000000000000e+02 5.000000000000000e+02
 9.250000000000000e+02 3.750000000000000e+02 5.020500000000000e+02
 9.250000000000000e+02 4.250000000000000e+02 5.020500000000000e+02
 8.750000000000000e+02 4.250000000000000e+02 5.020500000000000e+02
 8.750000000000000e+02 3.750000000000000e+02 5.020500000000000e+02
 8.750000000000000e+02 3.750000000000000e+02 5.000500000000000e+02
 9.250000000000000e+02 3.750000000000000e+02 5.000500000000000e+02
 8.750000000000000e+02 4.250000000000000e+02 5.000500000000000e+02
 9.250000000000000e+02 4.250000000000000e+02 5.000500000000000e+02
 1.000000000000000e+03 3.000000000000000e+02 5.000500000000000e+02
 1.000000000000000e+03 5.000000000000000e+02 5.000500000000000e+02
 8.000000000000000e+02 5.000000000000000e+02 5.000500000000000e+02
 8.000000000000000e+02 3.000000000000000e+02 5.000500000000000e+02
 8.000000000000000e+02 3.000000000000000e+02 5.000000000000000e+02
 1.000000000000000e+03 3.000000000000000e+02 5.000000000000000e+02
 8.000000000000000e+02 5.000000000000000e+02 5.000000000000000e+02
 1.000000000000000e+03 5.000000000000000e+02 5.000000000000000e+02
 6.750000000000000e+02 3.750000000000000e+02 5.020500000000000e+02
 6.750000000000000e+02 4.250000000000000e+02 5.020500000000000e+02
 6.250000000000000e+02 4.250000000000000e+02 5.020500000000000e+02
 6.250000000000000e+02 3.750000000000000e+02 5.020500000000000e+02
 6.250000000000000e+02 3.750000000000000e+02 5.000500000000000e+02
 6.750000000000000e+02 3.750000000000000e+02 5.000500000000000e+02
 6.250000000000000e+02 4.250000000000000e+02 5.000500000000000e+02
 6.750000000000000e+02 4.250000000000000e+02 5.000500000000000e+02
 7.500000000000000e+02 3.000000000000000e+02 5.000500000000000e+02
 7.500000000000000e+02 5.000000000000000e+02 5.000500000000000e+02
 5.500000000000000e+02 5.000000000000000e+02 5.000500000000000e+02
 5.500000000000000e+02 3.000000000000000e+02 5.000500000000000e+02
 5.500000000000000e+02 3.000000000000000e+02 5.000000000000000e+02
 7.500000000000000e+02 3.000000000000000e+02 5.000000000000000e+02
 5.500000000000000e+02 5.000000000000000e+02 5.000000000000000e+02
 7.500000000000000e+02 5.000000000000000e+02 5.000000000000000e+02
 4.250000000000000e+02 3.750000000000000e+02 5.020500000000000e+02
 4.250000000000000e+02 4.250000000000000e+02 5.020500000000000e+02
 3.750000000000000e+02 4.250000000000000e+02 5.020500000000000e+02
 3.750000000000000e+02 3.750000000000000e+02 5.020500000000000e+02
 3.750000000000000e+02 3.750000000000000e+02 5.000500000000000e+02
 4.250000000000000e+02 3.750000000000000e+02 5.000500000000000e+02
 3.750000000000000e+02 4.250000000000000e+02 5.000500000000000e+02
 4.250000000000000e+02 4.250000000000000e+02 5.000500000000000e+02
 5.000000000000000e+02 3.000000000000000e+02 5.000500000000000e+02
 5.000000000000000e+02 5.000000000000000e+02 5.000500000000000e+02
 3.000000000000000e+02 5.000000000000000e+02 5.000500000000000e+02
 3.000000000000000e+02 3.000000000000000e+02 5.000500000000000e+02
 3.000000000000000e+02 3.000000000000000e+02 5.000000000000000e+02
 5.000000000000000e+02 3.000000000000000e+02 5.000000000000000e+02
 3.000000000000000e+02 5.000000000000000e+02 5.000000000000000e+02
 5.000000000000000e+02 5.000000000000000e+02 5.000000000000000e+02
 1.750000000000000e+02 3.750000000000000e+02 5.020500000000000e+02
 1.750000000000000e+02 4.250000000000000e+02 5.020500000000000e+02
 1.250000000000000e+02 4.250000000000000e+02 5.020500000000000e+02
 1.250000000000000e+02 3.750000000000000e+02 5.020500000000000e+02
 1.250000000000000e+02 3.750000000000000e+02 5.000500000000000e+02
 1.750000000000000e+02 3.750000000000000e+02 5.000500000000000e+02
 1.250000000000000e+02 4.250000000000000e+02 5.000500000000000e+02
 1.750000000000000e+02 4.250000000000000e+02 5.000500000000000e+02
 2.500000000000000e+02 3.000000000000000e+02 5.000500000000000e+02
 2.500000000000000e+02 5.000000000000000e+02 5.000500000000000e+02
 5.000000000000000e+01 5.000000000000000e+02 5.000500000000000e+02
 5.000000000000000e+01 3.000000000000000e+02 5.000500000000000e+02
 5.000000000000000e+01 3.000000000000000e+02 5.000000000000000e+02
 2.500000000000000e+02 3.000000000000000e+02 5.000000000000000e+02
 5.000000000000000e+01 5.000000000000000e+02 5.000000000000000e+02
 2.500000000000000e+02 5.000000000000000e+02 5.000000000000000e+02
 1.175000000000000e+03 1.250000000000000e+02 5.020500000000000e+02
 1.175000000000000e+03 1.750000000000000e+02 5.020500000000000e+02
 1.125000000000000e+03 1.750000000000000e+02 5.020500000000000e+02
 1.125000000000000e+03 1.250000000000000e+02 5.020500000000000e+02
 1.125000000000000e+03 1.250000000000000e+02 5.000500000000000e+02
 1.175000000000000e+03 1.250000000000000e+02 5.000500000000000e+02
 1.125000000000000e+03 1.750000000000000e+02 5.000500000000000e+02
 1.175000000000000e+03 1.750000000000000e+02 5.000500000000000e+02
 1.250000000000000e+03 5.000000000000000e+01 5.000500000000000e+02
 1.250000000000000e+03 2.500000000000000e+02 5.000500000000000e+02
 1.050000000000000e+03 2.500000000000000e+02 5.000500000000000e+02
 1.050000000000000e+03 5.000000000000000e+01 5.000500000000000e+02
 1.050000000000000e+03 5.000000000000000e+01 5.000000000000000e+02
 1.250000000000000e+03 5.000000000000000e+01 5.000000000000000e+02
 1.050000000000000e+03 2.500000000000000e+02 5.000000000000000e+02
 1.250000000000000e+03 2.500000000000000e+02 5.000000000000000e+02
 9.250000000000000e+02 1.250000000000000e+02 5.020500000000000e+02
 9.250000000000000e+02 1.750000000000000e+02 5.020500000000000e+02
 8.750000000000000e+02 1.750000000000000e+02 5.020500000000000e+02
 8.750000000000000e+02 1.250000000000000e+02 5.020500000000000e+02
 8.750000000000000e+02 1.250000000000000e+02 5.000500000000000e+02
 9.250000000000000e+02 1.250000000000000e+02 5.000500000000000e+02
 8.750000000000000e+02 1.750000000000000e+02 5.000500000000000e+02
 9.250000000000000e+02 1.750000000000000e+02 5.000500000000000e+02
 1.000000000000000e+03 5.000000000000000e+01 5.000500000000000e+02
 1.000000000000000e+03 2.500000000000000e+02 5.000500000000000e+02
 8.000000000000000e+02 2.500000000000000e+02 5.000500000000000e+02
 8.000000000000000e+02 5.000000000000000e+01 5.000500000000000e+02
 8.000000000000000e+02 5.000000000000000e+01 5.000000000000000e+02
 1.000000000000000e+03 5.000000000000000e+01 5.000000000000000e+02
 8.000000000000000e+02 2.500000000000000e+02 5.000000000000000e+02
 1.000000000000000e+03 2.500000000000000e+02 5.000000000000000e+02
 6.750000000000000e+02 1.250000000000000e+02 5.020500000000000e+02
 6.750000000000000e+02 1.750000000000000e+02 5.020500000000000e+02
 6.250000000000000e+02 1.750000000000000e+02 5.020500000000000e+02
 6.250000000000000e+02 1.250000000000000e+02 5.020500000000000e+02
 6.250000000000000e+02 1.250000000000000e+02 5.000500000000000e+02
 6.750000000000000e+02 1.250000000000000e+02 5.000500000000000e+02
 6.250000000000000e+02 1.750000000000000e+02 5.000500000000000e+02
 6.750000000000000e+02 1.750000000000000e+02 5.000500000000000e+02
 7.500000000000000e+02 5.000000000000000e+01 5.000500000000000e+02
 7.500000000000000e+02 2.500000000000000e+02 5.000500000000000e+02
 5.500000000000000e+02 2.500000000000000e+02 5.000500000000000e+02
 5.500000000000000e+02 5.000000000000000e+01 5.000500000000000e+02
 5.500000000000000e+02 5.000000000000000e+01 5.000000000000000e+02
 7.500000000000000e+02 5.000000000000000e+01 5.000000000000000e+02
 5.500000000000000e+02 2.500000000000000e+02 5.000000000000000e+02
 7.500000000000000e+02 2.500000000000000e+02 5.000000000000000e+02
 4.250000000000000e+02 1.250000000000000e+02 5.020500000000000e+02
 4.250000000000000e+02 1.750000000000000e+02 5.020500000000000e+02
 3.750000000000000e+02 1.750000000000000e+02 5.020500000000000e+02
 3.750000000000000e+02 1.250000000000000e+02 5.020500000000000e+02
 3.750000000000000e+02 1.250000000000000e+02 5.000500000000000e+02
 4.250000000000000e+02 1.250000000000000e+02 5.000500000000000e+02
 3.750000000000000e+02 1.750000000000000e+02 5.000500000000000e+02
 4.250000000000000e+02 1.750000000000000e+02 5.000500000000000e+02
 5.000000000000000e+02 5.000000000000000e+01 5.000500000000000e+02
 5.000000000000000e+02 2.500000000000000e+02 5.000500000000000e+02
 3.000000000000000e+02 2.500000000000000e+02 5.000500000000000e+02
 3.000000000000000e+02 5.000000000000000e+01 5.000500000000000e+02
 3.000000000000000e+02 5.000000000000000e+01 5.000000000000000e+02
 5.000000000000000e+02 5.000000000000000e+01 5.000000000000000e+02
 3.000000000000000e+02 2.500000000000000e+02 5.000000000000000e+02
 5.000000000000000e+02 2.500000000000000e+02 5.000000000000000e+02
 1.750000000000000e+02 1.250000000000000e+02 5.020500000000000e+02
 1.750000000000000e+02 1.750000000000000e+02 5.020500000000000e+02
 1.250000000000000e+02 1.750000000000000e+02 5.020500000000000e+02
 1.250000000000000e+02 1.250000000000000e+02 5.020500000000000e+02
 1.250000000000000e+02 1.250000000000000e+02 5.000500000000000e+02
 1.750000000000000e+02 1.250000000000000e+02 5.000500000000000e+02
 1.250000000000000e+02 1.750000000000000e+02 5.000500000000000e+02
 1.750000000000000e+02 1.750000000000000e+02 5.000500000000000e+02
 2.500000000000000e+02 5.000000000000000e+01 5.000500000000000e+02
 2.500000000000000e+02 2.500000000000000e+02 5.000500000000000e+02
 5.000000000000000e+01 2.500000000000000e+02 5.000500000000000e+02
 5.000000000000000e+01 5.000000000000000e+01 5.000500000000000e+02
 5.000000000000000e+01 5.000000000000000e+01 5.000000000000000e+02
 2.500000000000000e+02 5.000000000000000e+01 5.000000000000000e+02
 5.000000000000000e+01 2.500000000000000e+02 5.000000000000000e+02