DF-ISE text

Info {
  version = 1.0
  type    = dataset
  dimension   = 3
  nb_vertices = 4540
  nb_edges    = 26571
  nb_faces    = 41776
  nb_elements = 24947
  nb_regions  = 105
  datasets    = [ "ElectrostaticPotential" "ElectrostaticPotential" "ElectrostaticPotential" "ElectrostaticPotential" "ElectrostaticPotential" "ElectrostaticPotential" "ElectrostaticPotential" "ElectrostaticPotential" "ElectrostaticPotential" "ElectrostaticPotential" "ElectrostaticPotential" "ElectrostaticPotential" "ElectrostaticPotential" "ElectrostaticPotential" "ElectrostaticPotential" "ElectrostaticPotential" "ElectrostaticPotential" "ElectrostaticPotential" "ElectrostaticPotential" "ElectrostaticPotential" "ElectrostaticPotential" "ElectrostaticPotential" "ElectrostaticPotential" "ElectrostaticPotential" "ElectrostaticPotential" "ElectrostaticPotential" "ElectrostaticPotential" "ElectrostaticPotential" "ElectrostaticPotential" "ElectrostaticPotential" "ElectrostaticPotential" "ElectrostaticPotential" "ElectrostaticPotential" "ElectrostaticPotential" "ElectrostaticPotential" "ElectrostaticPotential" "ElectrostaticPotential" "ElectrostaticPotential" "ElectrostaticPotential" "ElectrostaticPotential" "ElectrostaticPotential" "ElectrostaticPotential" "ElectrostaticPotential" "ElectrostaticPotential" "ElectrostaticPotential" "ElectrostaticPotential" "ElectrostaticPotential" "ElectrostaticPotential" "ElectrostaticPotential" "ElectrostaticPotential" "ElectrostaticPotential" "ElectrostaticPotential" "eDensity" "hDensity" "LatticeTemperature" "LatticeTemperature" "LatticeTemperature" "LatticeTemperature" "LatticeTemperature" "LatticeTemperature" "LatticeTemperature" "LatticeTemperature" "LatticeTemperature" "LatticeTemperature" "LatticeTemperature" "LatticeTemperature" "LatticeTemperature" "LatticeTemperature" "LatticeTemperature" "LatticeTemperature" "LatticeTemperature" "LatticeTemperature" "LatticeTemperature" "LatticeTemperature" "LatticeTemperature" "LatticeTemperature" "LatticeTemperature" "LatticeTemperature" "LatticeTemperature" "LatticeTemperature" "LatticeTemperature" "LatticeTemperature" "LatticeTemperature" "LatticeTemperature" "LatticeTemperature" "LatticeTemperature" "LatticeTemperature" "LatticeTemperature" "LatticeTemperature" "LatticeTemperature" "LatticeTemperature" "LatticeTemperature" "LatticeTemperature" "LatticeTemperature" "LatticeTemperature" "LatticeTemperature" "LatticeTemperature" "LatticeTemperature" "LatticeTemperature" "LatticeTemperature" "LatticeTemperature" "LatticeTemperature" "LatticeTemperature" "LatticeTemperature" "LatticeTemperature" "LatticeTemperature" "ElectricField" "ElectricField" "ElectricField" "ElectricField" "ElectricField" "ElectricField" "ElectricField" "ElectricField" "ElectricField" "ElectricField" "ElectricField" "ElectricField" "ElectricField" "ElectricField" "ElectricField" "ElectricField" "ElectricField" "ElectricField" "ElectricField" "ElectricField" "ElectricField" "ElectricField" "ElectricField" "ElectricField" "ElectricField" "ElectricField" "ElectricField" "ElectricField" "ElectricField" "ElectricField" "ElectricField" "ElectricField" "ElectricField" "ElectricField" "ElectricField" "ElectricField" "ElectricField" "ElectricField" "ElectricField" "ElectricField" "ElectricField" "ElectricField" "ElectricField" "ElectricField" "ElectricField" "ElectricField" "ElectricField" "ElectricField" "ElectricField" "ElectricField" "ElectricField" "ElectricField" "DelVorWeight" "DelVorWeight" "DelVorWeight" "DelVorWeight" "DelVorWeight" "DelVorWeight" "DelVorWeight" "DelVorWeight" "DelVorWeight" "DelVorWeight" "DelVorWeight" "DelVorWeight" "DelVorWeight" "DelVorWeight" "DelVorWeight" "DelVorWeight" "DelVorWeight" "DelVorWeight" "DelVorWeight" "DelVorWeight" "DelVorWeight" "DelVorWeight" "DelVorWeight" "DelVorWeight" "DelVorWeight" "DelVorWeight" "DelVorWeight" "DelVorWeight" "DelVorWeight" "DelVorWeight" "DelVorWeight" "DelVorWeight" "DelVorWeight" "DelVorWeight" "DelVorWeight" "DelVorWeight" "DelVorWeight" "DelVorWeight" "DelVorWeight" "DelVorWeight" "DelVorWeight" "DelVorWeight" "DelVorWeight" "DelVorWeight" "DelVorWeight" "DelVorWeight" "DelVorWeight" "DelVorWeight" "DelVorWeight" "DelVorWeight" "DelVorWeight" "DelVorWeight" ]
  functions   = [ ElectrostaticPotential ElectrostaticPotential ElectrostaticPotential ElectrostaticPotential ElectrostaticPotential ElectrostaticPotential ElectrostaticPotential ElectrostaticPotential ElectrostaticPotential ElectrostaticPotential ElectrostaticPotential ElectrostaticPotential ElectrostaticPotential ElectrostaticPotential ElectrostaticPotential ElectrostaticPotential ElectrostaticPotential ElectrostaticPotential ElectrostaticPotential ElectrostaticPotential ElectrostaticPotential ElectrostaticPotential ElectrostaticPotential ElectrostaticPotential ElectrostaticPotential ElectrostaticPotential ElectrostaticPotential ElectrostaticPotential ElectrostaticPotential ElectrostaticPotential ElectrostaticPotential ElectrostaticPotential ElectrostaticPotential ElectrostaticPotential ElectrostaticPotential ElectrostaticPotential ElectrostaticPotential ElectrostaticPotential ElectrostaticPotential ElectrostaticPotential ElectrostaticPotential ElectrostaticPotential ElectrostaticPotential ElectrostaticPotential ElectrostaticPotential ElectrostaticPotential ElectrostaticPotential ElectrostaticPotential ElectrostaticPotential ElectrostaticPotential ElectrostaticPotential ElectrostaticPotential eDensity hDensity LatticeTemperature LatticeTemperature LatticeTemperature LatticeTemperature LatticeTemperature LatticeTemperature LatticeTemperature LatticeTemperature LatticeTemperature LatticeTemperature LatticeTemperature LatticeTemperature LatticeTemperature LatticeTemperature LatticeTemperature LatticeTemperature LatticeTemperature LatticeTemperature LatticeTemperature LatticeTemperature LatticeTemperature LatticeTemperature LatticeTemperature LatticeTemperature LatticeTemperature LatticeTemperature LatticeTemperature LatticeTemperature LatticeTemperature LatticeTemperature LatticeTemperature LatticeTemperature LatticeTemperature LatticeTemperature LatticeTemperature LatticeTemperature LatticeTemperature LatticeTemperature LatticeTemperature LatticeTemperature LatticeTemperature LatticeTemperature LatticeTemperature LatticeTemperature LatticeTemperature LatticeTemperature LatticeTemperature LatticeTemperature LatticeTemperature LatticeTemperature LatticeTemperature LatticeTemperature ElectricField ElectricField ElectricField ElectricField ElectricField ElectricField ElectricField ElectricField ElectricField ElectricField ElectricField ElectricField ElectricField ElectricField ElectricField ElectricField ElectricField ElectricField ElectricField ElectricField ElectricField ElectricField ElectricField ElectricField ElectricField ElectricField ElectricField ElectricField ElectricField ElectricField ElectricField ElectricField ElectricField ElectricField ElectricField ElectricField ElectricField ElectricField ElectricField ElectricField ElectricField ElectricField ElectricField ElectricField ElectricField ElectricField ElectricField ElectricField ElectricField ElectricField ElectricField ElectricField DelVorWeight DelVorWeight DelVorWeight DelVorWeight DelVorWeight DelVorWeight DelVorWeight DelVorWeight DelVorWeight DelVorWeight DelVorWeight DelVorWeight DelVorWeight DelVorWeight DelVorWeight DelVorWeight DelVorWeight DelVorWeight DelVorWeight DelVorWeight DelVorWeight DelVorWeight DelVorWeight DelVorWeight DelVorWeight DelVorWeight DelVorWeight DelVorWeight DelVorWeight DelVorWeight DelVorWeight DelVorWeight DelVorWeight DelVorWeight DelVorWeight DelVorWeight DelVorWeight DelVorWeight DelVorWeight DelVorWeight DelVorWeight DelVorWeight DelVorWeight DelVorWeight DelVorWeight DelVorWeight DelVorWeight DelVorWeight DelVorWeight DelVorWeight DelVorWeight DelVorWeight ]
}

Data {

  Dataset ("ElectrostaticPotential") {
    function  = ElectrostaticPotential
    type      = scalar
    dimension = 1
    location  = vertex
    validity  = [ "Ni.3" ]
    Values (18) {
 5.413298404336017e-01 5.413298404336017e-01 5.413298404336017e-01 5.413298404336017e-01 5.413298404336017e-01 5.413298404336017e-01 5.413298404336017e-01 5.413298404336017e-01 5.413298404336017e-01 5.413298404336017e-01
 5.413298404336017e-01 5.413298404336017e-01 5.413298404336017e-01 5.413298404336017e-01 5.413298404336017e-01 5.413298404336017e-01 5.413298404336017e-01 5.413298404336017e-01
    }
  }

  Dataset ("ElectrostaticPotential") {
    function  = ElectrostaticPotential
    type      = scalar
    dimension = 1
    location  = vertex
    validity  = [ "V.4" ]
    Values (66) {
 5.413298404336017e-01 5.413298404336017e-01 5.413298404336017e-01 5.413298404336017e-01 4.236835083103625e+01 3.656063935964623e+01 3.168909644615583e+01 3.656063936016204e+01 3.665505658753465e+01 4.246273407720975e+01
 3.178354793160157e+01 3.665505658701883e+01 5.413298404336017e-01 5.413298404336017e-01 2.756429643021655e+01 2.241695337109834e+01 2.765866497561311e+01 2.251134807302689e+01 5.413298404336017e-01 2.241695337067796e+01
 2.251134807260651e+01 5.413298404336017e-01 6.356972196392511e-01 3.575812200967685e+01 3.585248649326904e+01 2.170001717680206e+01 2.179437350342466e+01 3.117750805803550e+01 3.127189518852439e+01 3.060755496128175e+01
 3.070191080088742e+01 1.988375544773083e+01 1.997811217853484e+01 3.041490802356243e+01 3.091253394842138e+01 3.100691731938353e+01 3.091253394841926e+01 3.100691731938141e+01 3.050926362802730e+01 2.170001717724477e+01
 2.179437350386737e+01 5.413298404336017e-01 2.756429642988610e+01 2.765866497528265e+01 3.013416118990599e+01 3.628227125104016e+01 3.637663713217250e+01 1.997811217821261e+01 1.988375544740860e+01 3.022851732007294e+01
 3.628227125102750e+01 3.637663713215985e+01 3.117750805727062e+01 3.127189518775952e+01 3.070191080006523e+01 3.060755496045956e+01 3.575812200912009e+01 3.585248649271228e+01 6.357179672170329e-01 6.357112504716448e-01
 6.357112504716451e-01 6.357179672170324e-01 6.357285521218022e-01 6.357330765293884e-01 6.357232741348712e-01 6.357285521217996e-01
    }
  }

  Dataset ("ElectrostaticPotential") {
    function  = ElectrostaticPotential
    type      = scalar
    dimension = 1
    location  = vertex
    validity  = [ "Ni.12" ]
    Values (18) {
 5.413298404336017e-01 5.413298404336017e-01 5.413298404336017e-01 5.413298404336017e-01 5.413298404336017e-01 5.413298404336017e-01 5.413298404336017e-01 5.413298404336017e-01 5.413298404336017e-01 5.413298404336017e-01
 5.413298404336017e-01 5.413298404336017e-01 5.413298404336017e-01 5.413298404336017e-01 5.413298404336017e-01 5.413298404336017e-01 5.413298404336017e-01 5.413298404336017e-01
    }
  }

  Dataset ("ElectrostaticPotential") {
    function  = ElectrostaticPotential
    type      = scalar
    dimension = 1
    location  = vertex
    validity  = [ "V.13" ]
    Values (66) {
 5.413298404336017e-01 5.413298404336017e-01 5.413298404336017e-01 5.413298404336017e-01 3.041892435217852e+01 3.041892435203009e+01 3.032905781454651e+01 3.032905781510551e+01 3.042344498587013e+01 3.051330039676607e+01
 3.042344498531113e+01 3.051330039661763e+01 5.413298404336017e-01 5.413298404336017e-01 2.124819043417546e+01 2.094877134926217e+01 2.104314584858372e+01 2.134255567048410e+01 2.776252646899901e+01 2.785689194644737e+01
 1.726975729860636e+01 1.736411378432344e+01 2.901998329967321e+01 2.911434809098603e+01 1.937294954517254e+01 1.946730583195831e+01 2.834060254875359e+01 2.843497242071382e+01 2.720539140623998e+01 2.729974713781947e+01
 5.413298404336017e-01 5.413298404336017e-01 2.111396877264741e+01 2.120833701845226e+01 6.356964303803734e-01 1.845387053562358e+01 1.854822690767256e+01 2.579844981308249e+01 2.589280569008046e+01 2.854389388710367e+01
 2.863825669911722e+01 2.776252646867681e+01 2.785689194612517e+01 2.901998329914214e+01 2.911434809045496e+01 2.834060254820464e+01 2.843497242016487e+01 2.720539140568237e+01 2.729974713726186e+01 5.413298404336017e-01
 2.111396877245453e+01 2.120833701825937e+01 1.854822690749079e+01 1.845387053544180e+01 2.589280568966661e+01 2.579844981266863e+01 2.854389388687339e+01 2.863825669888694e+01 6.357102917385762e-01 6.357111599411964e-01
 6.357119668280675e-01 6.357111599411956e-01 6.357228121041038e-01 6.357219986875328e-01 6.357228121041048e-01 6.357219986875320e-01
    }
  }

  Dataset ("ElectrostaticPotential") {
    function  = ElectrostaticPotential
    type      = scalar
    dimension = 1
    location  = vertex
    validity  = [ "Ni.21" ]
    Values (18) {
 5.413298404336017e-01 5.413298404336017e-01 5.413298404336017e-01 5.413298404336017e-01 5.413298404336017e-01 5.413298404336017e-01 5.413298404336017e-01 5.413298404336017e-01 5.413298404336017e-01 5.413298404336017e-01
 5.413298404336017e-01 5.413298404336017e-01 5.413298404336017e-01 5.413298404336017e-01 5.413298404336017e-01 5.413298404336017e-01 5.413298404336017e-01 5.413298404336017e-01
    }
  }

  Dataset ("ElectrostaticPotential") {
    function  = ElectrostaticPotential
    type      = scalar
    dimension = 1
    location  = vertex
    validity  = [ "V.22" ]
    Values (66) {
 5.413298404336017e-01 5.413298404336017e-01 5.413298404336017e-01 5.413298404336017e-01 3.090878231784339e+01 3.606343772904626e+01 3.606343774455255e+01 3.090878231742431e+01 3.100319212948543e+01 3.100319212990451e+01
 3.615782037797630e+01 3.615782036247003e+01 5.413298404336017e-01 5.413298404336017e-01 2.118196714114212e+01 2.616753674549690e+01 2.127636074463549e+01 2.626190492385026e+01 5.413298404336017e-01 2.223278744794113e+01
 2.232715605979295e+01 5.413298404336017e-01 6.356967959364835e-01 2.890969488076564e+01 2.900407877917422e+01 1.947238712758561e+01 1.956674355585687e+01 3.022892478304102e+01 3.032328952032472e+01 2.840812222329336e+01
 2.850247792262512e+01 2.048752145212146e+01 2.058187771791930e+01 3.372548858232800e+01 3.381985345771892e+01 3.062493718002672e+01 3.071930337192563e+01 2.842014217798115e+01 2.851449812187849e+01 1.876320461146484e+01
 1.885756127113143e+01 5.413298404336017e-01 2.223278744752123e+01 2.232715605937306e+01 2.890969488126173e+01 2.900407877967031e+01 1.956674355541620e+01 1.947238712714493e+01 2.840812222381492e+01 2.850247792314668e+01
 3.022892478347318e+01 3.032328952075689e+01 3.372548856078029e+01 3.381985343617117e+01 2.851449811303562e+01 2.842014216913829e+01 3.062493717254484e+01 3.071930336444376e+01 6.357100219101139e-01 6.357123626574898e-01
 6.357163525284515e-01 6.357123626574895e-01 6.357274914594799e-01 6.357229015001467e-01 6.357274914594907e-01 6.357229015001504e-01
    }
  }

  Dataset ("ElectrostaticPotential") {
    function  = ElectrostaticPotential
    type      = scalar
    dimension = 1
    location  = vertex
    validity  = [ "bulk_GaAs" ]
    Values (3201) {
 3.006356819258796e+02 3.006356819258796e+02 3.006356819258796e+02 3.006356819258796e+02 3.178354793093359e+01 3.665505658695937e+01 3.665505658670443e+01 4.246273407837285e+01 3.113970497013673e+01 3.121472117499045e+01
 3.614222188202974e+01 3.650347986458758e+01 3.100319212948543e+01 3.100319212990451e+01 3.615782037797630e+01 3.615782036247003e+01 3.121472117648288e+01 3.113970496973006e+01 3.650347988326568e+01 3.614222186008205e+01
 3.665505658724003e+01 3.178354793172069e+01 4.246273407736745e+01 3.665505658762955e+01 3.113970496990475e+01 3.614222188188069e+01 3.121472117539506e+01 3.650347986459444e+01 3.054778599716202e+01 3.062678823508244e+01
 3.062678823498863e+01 3.072105154582438e+01 3.042344498509942e+01 3.042344498562284e+01 3.051330039664404e+01 3.051330039675933e+01 3.062678823574745e+01 3.054778599714720e+01 3.072105154678600e+01 3.062678823508640e+01
 3.614222186050075e+01 3.113970496997545e+01 3.650347988284200e+01 3.121472117645065e+01 3.100319212990647e+01 3.615782037844310e+01 3.100319213055680e+01 3.615782036358156e+01 3.042344498587013e+01 3.051330039676607e+01
 3.042344498531113e+01 3.051330039661763e+01 3.030818861258614e+01 3.030818861295103e+01 3.030818861257970e+01 3.030818861211298e+01 3.051330039760736e+01 3.042344498593786e+01 3.051330039720599e+01 3.042344498582004e+01
 3.615782036235375e+01 3.100319213056072e+01 3.615782037923177e+01 3.100319213017990e+01 3.121472117644381e+01 3.650347988294186e+01 3.113970496990478e+01 3.614222186027478e+01 3.062678823593524e+01 3.072105154640369e+01
 3.054778599787573e+01 3.062678823507449e+01 3.051330039715641e+01 3.051330039719068e+01 3.042344498598936e+01 3.042344498628304e+01 3.072105154610445e+01 3.062678823527991e+01 3.062678823514334e+01 3.054778599753023e+01
 3.650347986420813e+01 3.121472117597088e+01 3.614222188138317e+01 3.113970497026258e+01 3.665505658753465e+01 4.246273407720975e+01 3.178354793160157e+01 3.665505658701883e+01 3.614222186036051e+01 3.650347988277244e+01
 3.113970497049426e+01 3.121472117655991e+01 3.615782036243299e+01 3.615782037915427e+01 3.100319212931572e+01 3.100319213035414e+01 3.650347986430404e+01 3.614222188182107e+01 3.121472117503776e+01 3.113970497020147e+01
 4.246273407770087e+01 3.665505658680178e+01 3.665505658595191e+01 3.178354793173471e+01 5.590930885509809e+01 5.590930885654556e+01 5.590930885523551e+01 5.590930885597274e+01 3.006356819258796e+02 3.006356819258796e+02
 2.127636074463549e+01 2.626190492385026e+01 2.104314584856779e+01 2.134255567041134e+01 2.109264197225335e+01 2.109264197230511e+01 2.134255567060397e+01 2.104314584909927e+01 2.626190492383015e+01 2.127636074447031e+01
 4.172794774120332e+01 4.172794774108532e+01 3.006356819258796e+02 2.109264197234712e+01 2.134255567081280e+01 2.104314584885010e+01 2.626190492388109e+01 2.127636074463333e+01 4.172794774123287e+01 3.006356819258796e+02
 6.356963858740302e-01 3.006356819258796e+02 2.785689194747140e+01 2.812148257913535e+01 2.790495358259798e+01 3.332092135882419e+01 2.845852871457679e+01 4.558113175048382e+01 3.006356819258796e+02 1.736411378463567e+01
 3.006356819258796e+02 2.812148257921723e+01 3.332092135886563e+01 2.845852871591881e+01 4.558113175040898e+01 3.006356819258796e+02 2.522794876741321e+01 1.640585310147006e+02 1.625192493617463e+02 1.625192493617087e+02
 3.006356819258796e+02 3.006356819258796e+02 1.632017178939753e+02 3.006356819258796e+02 1.632017178939453e+02 3.006356819258796e+02 2.322272892492309e+02 2.319938245468457e+02 2.319938245468382e+02 3.006356819258796e+02
 3.006356819258796e+02 2.321536350572412e+02 3.006356819258796e+02 2.321536350572389e+02 3.006356819258796e+02 2.666697576264956e+02 2.666393194740218e+02 2.666393194740209e+02 2.665694520795182e+02 3.006356819258796e+02
 2.665694520795212e+02 1.637424851472332e+02 1.637424851472242e+02 1.979612836265357e+02 1.978096646230355e+02 1.978096646230309e+02 1.975115880275324e+02 1.975115880275475e+02 2.316851951589146e+02 3.006356819258796e+02
 3.006356819258796e+02 2.318321666590631e+02 3.006356819258796e+02 2.664930202089017e+02 2.664227583996549e+02 3.006356819258796e+02 1.628565211199486e+02 1.972544107436459e+02 1.970202032212073e+02 3.006356819258796e+02
 2.316851951589266e+02 3.006356819258796e+02 3.006356819258796e+02 2.318321666590745e+02 3.006356819258796e+02 2.664930202089065e+02 3.006356819258796e+02 2.664227583996601e+02 1.628565211199922e+02 1.972544107436686e+02
 1.970202032212293e+02 3.006356819258796e+02 3.006356819258796e+02 3.006356819258796e+02 2.260440448313519e+01 2.765866497607465e+01 2.251134807228877e+01 4.349750826920133e+01 1.846284701956580e+01 2.765866497562781e+01
 4.349750826885242e+01 6.356972196392514e-01 9.943024029890684e+01 9.589870868879464e+01 9.589870868867857e+01 9.784135766405501e+01 9.784135766402355e+01 1.309129698516745e+02 1.302189167696647e+02 1.302189167696474e+02
 1.292129048020933e+02 1.292129048021524e+02 3.637663713246274e+01 4.920154329351466e+01 1.997811217824665e+01 3.637663713242537e+01 4.920154329344869e+01 3.022851732005252e+01 7.175419980018842e+01 6.812617292173788e+01
 6.812617292168635e+01 6.431526365305611e+01 1.997811217874191e+01 6.431526365327882e+01 9.528404545174718e+01 9.593673752698065e+01 1.288729086527071e+02 1.284070822246620e+02 3.106545017341410e+01 3.127189518616644e+01
 2.777926557429651e+01 3.585248649217490e+01 4.716488548666536e+01 3.070191079864002e+01 6.581965611741833e+01 6.480860412659244e+01 2.179437350313401e+01 2.260440448287211e+01 2.251134807338066e+01 1.846284701918936e+01
 9.528404545183771e+01 9.593673752714942e+01 1.288729086527921e+02 1.284070822247231e+02 3.585248649307263e+01 4.716488548723017e+01 2.179437350428231e+01 3.070191079984348e+01 6.581965611775783e+01 3.106545017340339e+01
 3.127189518731750e+01 2.777926557413311e+01 6.480860412669945e+01 3.057483733488995e+01 3.100691731961794e+01 2.793465579703341e+01 3.050926362831096e+01 3.057483733388240e+01 3.100691731960971e+01 2.793465579561201e+01
 1.620125891283972e+02 3.006356819258796e+02 3.006356819258796e+02 1.621867223774259e+02 3.006356819258796e+02 2.315064785730243e+02 3.006356819258796e+02 3.006356819258796e+02 2.315706641673796e+02 3.006356819258796e+02
 2.663676658681999e+02 2.663336967115945e+02 3.006356819258796e+02 1.622356832972247e+02 1.968360413065899e+02 1.967565640215354e+02 2.314462086097550e+02 3.006356819258796e+02 3.006356819258796e+02 2.314659343016413e+02
 3.006356819258796e+02 2.663131940600820e+02 2.663047560431574e+02 3.006356819258796e+02 1.621109995149312e+02 1.966975849210794e+02 1.966561758334189e+02 3.006356819258796e+02 3.006356819258796e+02 3.006356819258796e+02
 3.006356819258796e+02 3.006356819258796e+02 3.006356819258796e+02 3.006356819258796e+02 2.232715605933422e+01 2.226741336877763e+01 6.356967959364836e-01 3.456486756639349e+01 4.609361670912065e+01 2.063483721731419e+01
 9.499962777369863e+01 9.433264282573370e+01 1.279311681934807e+02 1.280483279622939e+02 2.941007420522023e+01 2.639732036660066e+01 4.189492439309169e+01 1.898439553606897e+01 6.262421046802561e+01 6.481834138986005e+01
 6.356968428787519e-01 9.409268339601893e+01 9.486813967467724e+01 1.279539016788857e+02 1.276853454717458e+02 3.071930336439215e+01 3.072025851815989e+01 1.885756127097372e+01 3.381985343613103e+01 4.565409558453818e+01
 2.851449811307218e+01 6.458094635124374e+01 6.241965559013375e+01 1.956674355538978e+01 2.936762934597411e+01 2.976381246362765e+01 2.671919068377431e+01 2.927519389124445e+01 2.069915217391861e+01 2.146064324181304e+01
 2.139451635546720e+01 1.747854357387119e+01 3.032328952141946e+01 3.039839840847552e+01 2.058187771789148e+01 2.850247792395963e+01 2.863825670009336e+01 2.900407878046269e+01 2.589280569130182e+01 2.785689194707045e+01
 2.790495358283173e+01 3.006356819258796e+02 1.736411378441576e+01 1.620125891283997e+02 3.006356819258796e+02 3.006356819258796e+02 1.621867223774527e+02 3.006356819258796e+02 2.315064785730325e+02 3.006356819258796e+02
 3.006356819258796e+02 2.315706641673903e+02 3.006356819258796e+02 2.663676658682047e+02 3.006356819258796e+02 2.663336967115982e+02 1.622356832972568e+02 1.968360413066090e+02 1.967565640215505e+02 3.006356819258796e+02
 3.006356819258796e+02 3.006356819258796e+02 3.006356819258796e+02 2.314462086097568e+02 3.006356819258796e+02 3.006356819258796e+02 2.314659343016461e+02 3.006356819258796e+02 2.663131940600842e+02 3.006356819258796e+02
 2.663047560431583e+02 1.621109995149445e+02 1.966975849210877e+02 1.966561758334213e+02 3.006356819258796e+02 3.006356819258796e+02 3.006356819258796e+02 2.936762934618275e+01 3.456486756687323e+01 2.976381246366349e+01
 4.609361670943042e+01 2.671919068406409e+01 2.063483721809236e+01 9.499962777379177e+01 9.433264282581200e+01 1.279311681935322e+02 1.280483279623425e+02 2.639732036670208e+01 4.189492439321168e+01 6.356968428787519e-01
 1.898439553614508e+01 6.262421046813256e+01 2.941007420587334e+01 6.481834139004677e+01 2.146064324200570e+01 2.139451635528970e+01 1.747854357411501e+01 2.069915217373715e+01 2.927519389128835e+01 2.232715605914426e+01
 2.226741336946621e+01 6.356967959364836e-01 9.409268339601724e+01 9.486813967471143e+01 1.279539016789071e+02 1.276853454717476e+02 3.381985343615989e+01 4.565409558459307e+01 1.956674355515803e+01 3.071930336440462e+01
 3.072025851875718e+01 2.851449811303042e+01 6.458094635129370e+01 1.885756127093483e+01 6.241965559012193e+01 2.863825669958783e+01 2.900407877886159e+01 2.589280569083065e+01 3.032328952008549e+01 3.039839840844950e+01
 2.850247792227182e+01 2.058187771773718e+01 3.006356819258796e+02 3.006356819258796e+02 3.006356819258796e+02 3.006356819258796e+02 3.006356819258796e+02 3.006356819258796e+02 3.006356819258796e+02 3.006356819258796e+02
 3.006356819258796e+02 3.006356819258796e+02 3.006356819258796e+02 3.006356819258796e+02 3.006356819258796e+02 3.006356819258796e+02 3.006356819258796e+02 2.911434809112989e+01 2.917706402387707e+01 1.946730583224200e+01
 2.806950706951996e+01 1.958106808925714e+01 6.356964752093984e-01 1.958106808953163e+01 2.120833701891938e+01 2.115874595726253e+01 6.356964303803734e-01 1.854822690821711e+01 2.729974713801166e+01 2.911434809118598e+01
 2.917706402388633e+01 1.946730583252166e+01 2.729974713808127e+01 2.120833701896000e+01 2.115874595751031e+01 1.854822690825306e+01 6.356964303803734e-01 2.838015422339276e+01 2.843497242093153e+01 1.843528963227544e+01
 2.838015422338375e+01 2.843497242085799e+01 2.650887027680234e+01 1.843528963213294e+01 3.006356819258796e+02 2.845852871643433e+01 3.332092138377136e+01 2.790495358352052e+01 2.812148257985678e+01 2.785689194692304e+01
 4.558113170854767e+01 3.006356819258796e+02 2.812148257983877e+01 3.332092138332575e+01 2.845852871640285e+01 4.558113170826897e+01 3.006356819258796e+02 2.522794876812639e+01 1.625192493594577e+02 3.006356819258796e+02
 3.006356819258796e+02 1.621867223771797e+02 3.006356819258796e+02 2.315064785727576e+02 3.006356819258796e+02 3.006356819258796e+02 2.314659343014790e+02 3.006356819258796e+02 2.663131940600089e+02 2.663336967114604e+02
 3.006356819258796e+02 1.621109995142320e+02 1.966975849207681e+02 1.967565640211738e+02 2.316851951582587e+02 3.006356819258796e+02 3.006356819258796e+02 2.315706641669167e+02 3.006356819258796e+02 2.663676658679821e+02
 2.664227583993587e+02 3.006356819258796e+02 1.622356832960661e+02 1.968360413058274e+02 1.970202032200130e+02 3.006356819258796e+02 3.006356819258796e+02 3.006356819258796e+02 3.006356819258796e+02 3.006356819258796e+02
 3.006356819258796e+02 3.006356819258796e+02 2.226741336720282e+01 2.232715606040637e+01 1.846284702097990e+01 3.456486754226741e+01 4.609361673336252e+01 2.063483721571856e+01 9.499962778027674e+01 9.486813966653619e+01
 1.279539016767737e+02 1.280483279631614e+02 3.072025850758032e+01 3.071930337354225e+01 2.941007419366676e+01 3.381985345913886e+01 4.565409555456672e+01 2.851449812380608e+01 6.458094631547351e+01 6.481834142365636e+01
 1.956674355647817e+01 9.528404543812056e+01 9.433264282337873e+01 1.279311681917838e+02 1.284070822196933e+02 2.777926558667616e+01 2.639732036571422e+01 4.189492439011285e+01 1.898439553564535e+01 6.262421046529619e+01
 6.480860408096285e+01 6.356968428787517e-01 2.936762934673593e+01 2.976381246333341e+01 2.671919068486444e+01 3.039839840812521e+01 3.032328952104724e+01 2.927519389091290e+01 2.850247792345183e+01 2.863825669954742e+01
 2.900407877997173e+01 2.589280569056222e+01 2.793465579752604e+01 2.069915217437581e+01 2.146064324231593e+01 2.139451635591359e+01 1.747854357436064e+01 1.640585310134399e+02 1.625192493594516e+02 3.006356819258796e+02
 1.632017178924521e+02 3.006356819258796e+02 1.632017178924429e+02 3.006356819258796e+02 2.319938245461585e+02 3.006356819258796e+02 3.006356819258796e+02 2.318321666583617e+02 3.006356819258796e+02 2.664930202085750e+02
 2.665694520791893e+02 3.006356819258796e+02 1.628565211180156e+02 1.972544107424570e+02 1.975115880264673e+02 2.322272892485733e+02 2.319938245461593e+02 3.006356819258796e+02 2.321536350565783e+02 3.006356819258796e+02
 2.321536350565780e+02 3.006356819258796e+02 2.666393194736942e+02 2.666697576261689e+02 2.666393194736942e+02 3.006356819258796e+02 2.665694520791893e+02 1.637424851459288e+02 1.637424851459261e+02 1.978096646220384e+02
 1.979612836255575e+02 1.978096646220395e+02 1.975115880264706e+02 3.006356819258796e+02 3.006356819258796e+02 3.006356819258796e+02 3.006356819258796e+02 2.316851951582501e+02 3.006356819258796e+02 2.318321666583603e+02
 3.006356819258796e+02 2.664930202085737e+02 3.006356819258796e+02 2.664227583993541e+02 1.628565211180278e+02 1.972544107424588e+02 1.970202032200029e+02 2.251134807240387e+01 2.765866497559699e+01 2.260440448476572e+01
 4.349750826691231e+01 2.765866497560751e+01 4.349750826687625e+01 6.356972196392512e-01 9.589870868621033e+01 9.593673752133941e+01 1.288729086494665e+02 1.292129048000985e+02 3.127189518807362e+01 3.106545018455984e+01
 1.997811217855764e+01 3.585248649295266e+01 4.716488547518971e+01 3.070191080040884e+01 6.581965610846369e+01 6.431526365049353e+01 2.179437350321127e+01 9.943024029746859e+01 9.589870868624645e+01 9.784135766248137e+01
 9.784135766247385e+01 1.302189167681269e+02 1.309129698502285e+02 1.302189167681320e+02 1.292129048001188e+02 3.637663713231927e+01 4.920154329273125e+01 3.637663713234434e+01 4.920154329273485e+01 3.022851732026592e+01
 6.812617292045745e+01 7.175419979905358e+01 6.812617292046374e+01 1.997811217847742e+01 6.431526365054054e+01 2.260440448501438e+01 2.251134807342662e+01 1.846284702115712e+01 3.100691731951251e+01 3.057483733539998e+01
 2.179437350427644e+01 3.050926362817351e+01 3.057483733543611e+01 3.100691731952319e+01 2.793465579756350e+01 9.528404543817447e+01 9.593673752142702e+01 1.288729086495032e+02 1.284070822197039e+02 3.585248649334181e+01
 4.716488547547252e+01 3.070191080090926e+01 6.581965610864621e+01 3.106545018507772e+01 3.127189518857082e+01 2.777926558725256e+01 6.480860408111421e+01 2.785689194635569e+01 2.790495358269362e+01 3.006356819258796e+02